
                                 *****************
                                 * O   R   C   A *
                                 *****************

                                            #,                                       
                                            ###                                      
                                            ####                                     
                                            #####                                    
                                            ######                                   
                                           ########,                                 
                                     ,,################,,,,,                         
                               ,,#################################,,                 
                          ,,##########################################,,             
                       ,#########################################, ''#####,          
                    ,#############################################,,   '####,        
                  ,##################################################,,,,####,       
                ,###########''''           ''''###############################       
              ,#####''   ,,,,##########,,,,          '''####'''          '####       
            ,##' ,,,,###########################,,,                        '##       
           ' ,,###''''                  '''############,,,                           
         ,,##''                                '''############,,,,        ,,,,,,###''
      ,#''                                            '''#######################'''  
     '                                                          ''''####''''         
             ,#######,   #######,   ,#######,      ##                                
            ,#'     '#,  ##    ##  ,#'     '#,    #''#        ,####,   ,####,        
            ##       ##  ##   ,#'  ##            #'  '#       #'       #'  '#        
            ##       ##  #######   ##           ,######,      #####,   #    #        
            '#,     ,#'  ##    ##  '#,     ,#' ,#      #,     #,   #   #,  ,#        
             '#######'   ##     ##  '#######'  #'      '#     '####' # '####'        



                #########################################################
                #                        -***-                          #
                #          Department of theory and spectroscopy        #
                #                                                       #
                #                      Frank Neese                      #
                #                                                       #
                #     Directorship, Architecture, Infrastructure        #
                #                    SHARK, DRIVERS                     #
                #        Core code/Algorithms in most modules           #
                #                                                       #
                #        Max Planck Institute fuer Kohlenforschung      #
                #                Kaiser Wilhelm Platz 1                 #
                #                 D-45470 Muelheim/Ruhr                 #
                #                      Germany                          #
                #                                                       #
                #                  All rights reserved                  #
                #                        -***-                          #
                #########################################################


                         Program Version 6.0.1  -  RELEASE   -


 With contributions from (in alphabetic order):
[Max-Planck-Institut fuer Kohlenforschung]                               
  Daniel Aravena         : Magnetic Suceptibility                        
  Michael Atanasov       : Ab Initio Ligand Field Theory (pilot matlab implementation)
  Alexander A. Auer      : GIAO ZORA, VPT2 properties, NMR spectrum      
  Ute Becker             : All parallelization in ORCA, NUMFREQ, NUMCALC 
  Giovanni Bistoni       : ED, misc. LED, open-shell LED, HFLD           
  Martin Brehm           : Molecular dynamics                            
  Dmytro Bykov           : pre 5.0 version of the SCF Hessian            
  Marcos Casanova-Páez   : Triplet and SCS-CIS(D). UHF-(DLPNO)-IP/EA/STEOM-CCSD. UHF-CVS-IP/STEOM-CCSD   
  Vijay G. Chilkuri      : MRCI spin determinant printing, contributions to CSF-ICE 
  Pauline Colinet        : FMM embedding                                 
  Dipayan Datta          : RHF DLPNO-CCSD density                        
  Achintya Kumar Dutta   : EOM-CC, STEOM-CC                              
  Nicolas Foglia         : Exact transition moments, OPA infrastructure, MCD improvements    
  Dmitry Ganyushin       : Spin-Orbit,Spin-Spin,Magnetic field MRCI      
  Miquel Garcia-Rates    : C-PCM and meta-GGA Hessian, CCSD/C-PCM, Gaussian charge scheme 
  Tiago L. C. Gouveia    : GS-ROHF, GS-ROCIS                             
  Yang Guo               : DLPNO-NEVPT2, F12-NEVPT2, CIM, IAO-localization        
  Andreas Hansen         : Spin unrestricted coupled pair/coupled cluster methods 
  Ingolf Harden          : AUTO-CI MPn and infrastructure                
  Benjamin Helmich-Paris : MC-RPA, TRAH-(SCF,CASSCF), AVAS, COSX integrals, SCF dyn. polar. 
  Lee Huntington         : MR-EOM, pCC                                   
  Robert Izsak           : Overlap fitted RIJCOSX, COSX-SCS-MP3, EOM     
  Riya Kayal             : Wick's Theorem for AUTO-CI, AUTO-CI UHF-CCSDT 
  Emily Kempfer          : AUTO-CI, RHF CISDT and CCSDT                  
  Christian Kollmar      : KDIIS, OOCD, Brueckner-CCSD(T), CCSD density, CASPT2, CASPT2-K, improved NEVPT2 
  Axel Koslowski         : Symmetry handling                             
  Simone Kossmann        : meta-GGA functionals, TD-DFT gradient, OOMP2, (MP2 Hessian; deprecated post 5.0) 
  Lucas Lang             : DCDCAS                                        
  Marvin Lechner         : AUTO-CI (C++ implementation), FIC-MRCC        
  Spencer Leger          : CASSCF response                               
  Dagmar Lenk            : GEPOL surface, SMD, ORCA-2-JSON               
  Dimitrios Liakos       : Extrapolation schemes; Compound Job, initial MDCI parallelization 
  Dimitrios Manganas     : Further ROCIS development; embedding schemes. LFT, Crystal Embedding 
  Dimitrios Pantazis     : SARC Basis sets                               
  Anastasios Papadopoulos: AUTO-CI, single reference methods and gradients 
  Taras Petrenko         : pre 6.0 DFT Hessian and TD-DFT gradient, (ASA, deprecated), ECA, 1-Electron XAS/XES, NRVS 
  Peter Pinski           : DLPNO-MP2, DLPNO-MP2 Gradient                 
  Christoph Reimann      : Effective Core Potentials                     
  Marius Retegan         : Local ZFS, SOC                                
  Christoph Riplinger    : Optimizer, TS searches, QM/MM, DLPNO-CCSD(T), (RO)-DLPNO pert. Triples 
  Michael Roemelt        : Original ROCIS implementation                 
  Masaaki Saitow         : Open-shell DLPNO-CCSD energy and density      
  Barbara Sandhoefer     : DKH picture change effects                    
  Kantharuban Sivalingam : CASSCF convergence/infrastructure, NEVPT2 and variants, FIC-MRCI 
  Bernardo de Souza      : ESD, SOC TD-DFT                               
  Georgi L. Stoychev     : AutoAux, RI-MP2 NMR, DLPNO-MP2 response, X2C  
  Van Anh Tran           : RI-MP2 g-tensors                              
  Willem Van den Heuvel  : Paramagnetic NMR                              
  Zikuan Wang            : NOTCH, Electric field optimization            
  Frank Wennmohs         : Technical directorship and infrastructure     
  Hang Xu                : AUTO-CI-Response properties                   
                                                                         
[FACCTs GmbH]                                                            
  Markus Bursch, Miquel Garcia-Rates, Christoph Riplinger, Bernardo de Souza, Georgi L. Stoychev 
                                                                 
  APM, Basis sets (HGBS, AHGBS, def-TZVP (Ac-Lr), def2-XVPD (La-Lu)), CI-OPT, improved COSX, DLPNO-Multilevel,           
  DOCKER, DRACO, updates on ESD, GOAT, IRC, LR-CPCM, MBIS, meta-GGA TD-DFT gradient, ML-optimized integration grids, 
  MM, NACMEs, nearIR, NEB, NEB-TS, NL-DFT gradient (VV10), 2- and 3-layer-ONIOM, interface openCOSMO-RS, QMMM,   
  Crystal-QMMM, SF, symmetry and pop. for TD-DFT, r2SCAN hybrids, SOLVATOR                                   
                                                                         
[Other institutions]                                                     
  V. Asgeirsson          : NEB                                           
  Christoph Bannwarth    : sTDA-DFT, sTD-DFT, PBEh-3c, B97-3c, D3        
  Sebastian Ehlert       : rSCAN, r2SCAN, r2SCAN-3c, D4, dhf basis sets  
  Marvin Friede          : D4 for Fr, Ra, Ac-Lr                          
  Lars Goerigk           : TD-DFT with DH, B97 family of functionals     
  Stefan Grimme          : VdW corrections, initial TS optimization, DFT functionals, gCP, sTDA/sTD-DF 
  Waldemar Hujo          : DFT-NL                                        
  H. Jonsson             : NEB                                           
  Holger Kruse           : gCP                                           
  Marcel Mueller         : wB97X-3c, vDZP basis set                      
  Hagen Neugebauer       : wr2SCAN                                       
  Tobias Risthaus        : range-separated hybrid DFT                    
  Lukas Wittmann         : regularized MP2, r2SCAN double-hybrids, wr2SCAN        
                                                                         
We gratefully acknowledge several colleagues who have allowed us to      
interface, adapt or use parts of their codes:                            
  Ed Valeev, F. Pavosevic, A. Kumar             : LibInt (2-el integral package), F12 methods 
  Garnet Chan, S. Sharma, J. Yang, R. Olivares  : DMRG                   
  Ulf Ekstrom                                   : XCFun DFT Library      
  Mihaly Kallay                                 : mrcc  (arbitrary order and MRCC methods)
  Frank Weinhold                                : gennbo (NPA and NBO analysis)           
  Simon Mueller                                 : openCOSMO-RS                            
  Christopher J. Cramer and Donald G. Truhlar   : smd solvation model                     
  S Lehtola, MJT Oliveira, MAL Marques          : LibXC Library                           
  Liviu Ungur et al                             : ANISO software                          


 Your calculation uses the libint2 library for the computation of 2-el integrals
 For citations please refer to: http://libint.valeyev.net

 Your ORCA version has been built with support for libXC version: 6.2.2
 For citations please refer to: https://libxc.gitlab.io

 This ORCA versions uses:
   CBLAS   interface :  Fast vector & matrix operations
   LAPACKE interface :  Fast linear algebra routines
   SCALAPACK package :  Parallel linear algebra routines
   Shared memory     :  Shared parallel matrices
   BLAS/LAPACK       :  OpenBLAS 0.3.27  USE64BITINT DYNAMIC_ARCH NO_AFFINITY SkylakeX SINGLE_THREADED
        Core in use  :  SkylakeX
   Copyright (c) 2011-2014, The OpenBLAS Project


NOTE: MaxCore=8000 MB was set to SCF,MP2,MDCI,CIPSI,MRCI and CIS
      => If you want to overwrite this, your respective input block should be placed after the MaxCore statement
Your calculation utilizes the atom-pairwise dispersion correction
with the Becke-Johnson damping scheme (D3BJ)


================================================================================

cite the ECPs for I  [Def2-ECP] as follows:
Ce-Yb(ecp-28): M. Dolg, H. Stoll, H.Preuss, J. Chem. Phys., 1989, 90, 1730-1734.
Y-Cd(ecp-28), Hf-Hg(ecp-46): D. Andrae,U. Haeussermann, M. Dolg, H. Stoll, H. Preuss, Theor. Chim. Acta, 1990, 77, 123-141.
In-Sb(ecp-28), Tl-Bi(ecp-46): B. Metz, H. Stoll, M. Dolg, J. Chem. Phys., 2000, 113, 2563-2569.
Te-Xe(ecp-28), Po-Rn(ecp-46): K. A. Peterson, D. Figgen, E. Goll, H. Stoll, M. Dolg, J. Chem. Phys., 2003, 119, 11113-11123.
Rb(ecp-28), Cs(ecp-46): T. Leininger, A. Nicklass, W. Kuechle, H. Stoll, M. Dolg, A. Bergner, Chem. Phys. Lett., 1996, 255, 274-280.
Sr(ecp-28), Ba(ecp-46): M. Kaupp, P. V. Schleyer, H. Stoll and H. Preuss, J. Chem. Phys., 1991, 94, 1360-1366.
La(ecp-46): M. Dolg, H. Stoll, A. Savin, H. Preuss, Theor. Chim. Acta, 1989, 75, 173-194.
Lu(ecp-28): X. Cao, M. Dolg, J. Chem. Phys., 2001, 115, 7348-7355.

ECP parameters for I  [Def2-ECP] have been obtained from:
TURBOMOLE (7.0.2)

----- Orbital basis set information -----
Your calculation utilizes the basis: def2-TZVP
   F. Weigend and R. Ahlrichs, Phys. Chem. Chem. Phys. 7, 3297 (2005).

----- AuxJ basis set information -----
Your calculation utilizes the auxiliary basis: def2/J
   F. Weigend, Phys. Chem. Chem. Phys. 8, 1057 (2006).

================================================================================
                                        WARNINGS
                       Please study these warnings very carefully!
================================================================================


================================================================================
                                       INPUT FILE
================================================================================
NAME = DIB.inp
|  1> ! B3LYP D3 def2-TZVP def2/J RIJCOSX opt freq tightSCF noautostart miniprint
|  2> %maxcore     8000
|  3> %pal nprocs  6 end
|  4> * xyz   0   1
|  5> C      0.84835000    1.07015300   -0.28386100
|  6> C      1.38305000   -0.17444700    0.04863900
|  7> C      0.53465000   -1.24464700    0.33243900
|  8> C     -0.84835000   -1.07014700    0.28383900
|  9> C     -1.38305000    0.17445300   -0.04856100
| 10> C     -0.53465000    1.24465300   -0.33246100
| 11> I     -2.15538200   -2.71898000    0.72112400
| 12> I      2.15538800    2.71894300   -0.72128900
| 13> H      2.47373800   -0.31201500    0.08705300
| 14> H      0.95628200   -2.22623300    0.59457400
| 15> H     -2.47373900    0.31205000   -0.08682600
| 16> H     -0.95628800    2.22621700   -0.59466900
| 17> *
| 18> 
| 19>                          ****END OF INPUT****
================================================================================

                       *****************************
                       * Geometry Optimization Run *
                       *****************************

Geometry optimization settings:
Update method            Update   .... BFGS
Choice of coordinates    CoordSys .... (2022) Redundant Internals
Initial Hessian          InHess   .... Almloef's Model
Max. no of cycles        MaxIter  .... 50

Convergence Tolerances:
Energy Change            TolE     ....  5.0000e-06 Eh
Max. Gradient            TolMAXG  ....  3.0000e-04 Eh/bohr
RMS Gradient             TolRMSG  ....  1.0000e-04 Eh/bohr
Max. Displacement        TolMAXD  ....  4.0000e-03 bohr
RMS Displacement         TolRMSD  ....  2.0000e-03 bohr
Strict Convergence                .... False

------------------------------------------------------------------------------
                        ORCA OPTIMIZATION COORDINATE SETUP
------------------------------------------------------------------------------

The optimization will be done in redundant internal coordinates (2022)
Making redundant internal coordinates   ...  (2022 redundants) done
Evaluating the initial hessian          ...  (Almloef) done
Evaluating the coordinates              ...  done
Calculating the B-matrix                .... done
Calculating the G-matrix                .... done
Diagonalizing the G-matrix              .... done
The first mode is                       ....   24
The number of degrees of freedom        ....   30

    -----------------------------------------------------------------
                    Redundant Internal Coordinates


    -----------------------------------------------------------------
         Definition                    Initial Value    Approx d2E/dq
    -----------------------------------------------------------------
      1. B(C   1,C   0)                  1.3948         0.613858   
      2. B(C   2,C   1)                  1.3949         0.613725   
      3. B(C   3,C   2)                  1.3948         0.613848   
      4. B(C   4,C   3)                  1.3948         0.613911   
      5. B(C   5,C   4)                  1.3949         0.613679   
      6. B(C   5,C   0)                  1.3948         0.613848   
      7. B(I   6,C   3)                  2.1490         0.129210   
      8. B(I   7,C   0)                  2.1490         0.129210   
      9. B(H   8,C   1)                  1.1000         0.347111   
     10. B(H   9,C   2)                  1.1000         0.347112   
     11. B(H  10,C   4)                  1.1000         0.347112   
     12. B(H  11,C   5)                  1.1000         0.347112   
     13. A(C   1,C   0,C   5)          120.0029         0.432513   
     14. A(C   5,C   0,I   7)          119.9986         0.350927   
     15. A(C   1,C   0,I   7)          119.9986         0.350927   
     16. A(C   2,C   1,H   8)          120.0015         0.350122   
     17. A(C   0,C   1,H   8)          120.0016         0.350134   
     18. A(C   0,C   1,C   2)          119.9969         0.432498   
     19. A(C   3,C   2,H   9)          119.9999         0.350134   
     20. A(C   1,C   2,C   3)          120.0002         0.432496   
     21. A(C   1,C   2,H   9)          119.9999         0.350122   
     22. A(C   2,C   3,I   6)          119.9984         0.350926   
     23. A(C   2,C   3,C   4)          120.0033         0.432520   
     24. A(C   4,C   3,I   6)          119.9984         0.350933   
     25. A(C   3,C   4,H  10)          120.0014         0.350140   
     26. A(C   3,C   4,C   5)          119.9972         0.432499   
     27. A(C   5,C   4,H  10)          120.0014         0.350117   
     28. A(C   0,C   5,C   4)          119.9996         0.432491   
     29. A(C   4,C   5,H  11)          120.0002         0.350117   
     30. A(C   0,C   5,H  11)          120.0002         0.350134   
     31. D(H   8,C   1,C   0,C   5)   -179.9942         0.026044   
     32. D(H   8,C   1,C   0,I   7)      0.0058         0.026044   
     33. D(C   2,C   1,C   0,I   7)   -179.9942         0.026044   
     34. D(C   2,C   1,C   0,C   5)      0.0058         0.026044   
     35. D(H   9,C   2,C   1,C   0)    179.9942         0.026032   
     36. D(C   3,C   2,C   1,C   0)     -0.0058         0.026032   
     37. D(C   3,C   2,C   1,H   8)    179.9942         0.026032   
     38. D(H   9,C   2,C   1,H   8)     -0.0058         0.026032   
     39. D(I   6,C   3,C   2,H   9)      0.0012         0.026043   
     40. D(I   6,C   3,C   2,C   1)   -179.9988         0.026043   
     41. D(C   4,C   3,C   2,H   9)   -179.9988         0.026043   
     42. D(C   4,C   3,C   2,C   1)      0.0012         0.026043   
     43. D(H  10,C   4,C   3,C   2)   -179.9967         0.026049   
     44. D(C   5,C   4,C   3,I   6)   -179.9966         0.026049   
     45. D(C   5,C   4,C   3,C   2)      0.0034         0.026049   
     46. D(H  10,C   4,C   3,I   6)      0.0033         0.026049   
     47. D(H  11,C   5,C   4,H  10)     -0.0033         0.026028   
     48. D(C   0,C   5,C   4,H  10)    179.9967         0.026028   
     49. D(C   0,C   5,C   4,C   3)     -0.0034         0.026028   
     50. D(H  11,C   5,C   0,I   7)     -0.0012         0.026043   
     51. D(H  11,C   5,C   0,C   1)    179.9988         0.026043   
     52. D(H  11,C   5,C   4,C   3)    179.9966         0.026028   
     53. D(C   4,C   5,C   0,I   7)    179.9988         0.026043   
     54. D(C   4,C   5,C   0,C   1)     -0.0012         0.026043   
    -----------------------------------------------------------------

Number of atoms                         .... 12
Number of degrees of freedom            .... 54


         *************************************************************
         *                GEOMETRY OPTIMIZATION CYCLE   1            *
         *************************************************************
---------------------------------
CARTESIAN COORDINATES (ANGSTROEM)
---------------------------------
  C      0.848350    1.070153   -0.283861
  C      1.383050   -0.174447    0.048639
  C      0.534650   -1.244647    0.332439
  C     -0.848350   -1.070147    0.283839
  C     -1.383050    0.174453   -0.048561
  C     -0.534650    1.244653   -0.332461
  I     -2.155382   -2.718980    0.721124
  I      2.155388    2.718943   -0.721289
  H      2.473738   -0.312015    0.087053
  H      0.956282   -2.226233    0.594574
  H     -2.473739    0.312050   -0.086826
  H     -0.956288    2.226217   -0.594669

----------------------------
CARTESIAN COORDINATES (A.U.)
----------------------------
  NO LB      ZA    FRAG     MASS         X           Y           Z
   0 C     6.0000    0    12.011    1.603149    2.022296   -0.536420
   1 C     6.0000    0    12.011    2.613586   -0.329657    0.091914
   2 C     6.0000    0    12.011    1.010342   -2.352042    0.628219
   3 C     6.0000    0    12.011   -1.603149   -2.022285    0.536378
   4 C     6.0000    0    12.011   -2.613586    0.329668   -0.091767
   5 C     6.0000    0    12.011   -1.010342    2.352053   -0.628260
   6 I    25.0000*   0   126.900   -4.073082   -5.138128    1.362727
   7 I    25.0000*   0   126.900    4.073093    5.138058   -1.363039
   8 H     1.0000    0     1.008    4.674687   -0.589623    0.164506
   9 H     1.0000    0     1.008    1.807111   -4.206971    1.123582
  10 H     1.0000    0     1.008   -4.674689    0.589689   -0.164077
  11 H     1.0000    0     1.008   -1.807122    4.206940   -1.123762
* core charge reduced due to ECP



           ************************************************************
           *        Program running with 6 parallel MPI-processes     *
           *              working on a common directory               *
           ************************************************************
------------------------------------------------------------------------------
                   ___                                                        
                  /   \      - P O W E R E D   B Y -                         
                 /     \                                                     
                 |  |  |   _    _      __       _____    __    __             
                 |  |  |  | |  | |    /  \     |  _  \  |  |  /  |          
                  \  \/   | |  | |   /    \    | | | |  |  | /  /          
                 / \  \   | |__| |  /  /\  \   | |_| |  |  |/  /          
                |  |  |   |  __  | /  /__\  \  |    /   |      \           
                |  |  |   | |  | | |   __   |  |    \   |  |\   \          
                \     /   | |  | | |  |  |  |  | |\  \  |  | \   \       
                 \___/    |_|  |_| |__|  |__|  |_| \__\ |__|  \__/        
                                                                              
                      - O R C A' S   B I G   F R I E N D -                    
                                      &                                       
                       - I N T E G R A L  F E E D E R -                       
                                                                              
 v1 FN, 2020, v2 2021, v3 2022-2024                                           
------------------------------------------------------------------------------


----------------------
SHARK INTEGRAL PACKAGE
----------------------

Number of atoms                             ...     12
Number of basis functions                   ...    310
Number of shells                            ...    114
Maximum angular momentum                    ...      3
Integral batch strategy                     ... SHARK/LIBINT Hybrid
RI-J (if used) integral strategy            ... SPLIT-RIJ (Revised 2003 algorithm where possible)
Printlevel                                  ...      1
Contraction scheme used                     ... SEGMENTED contraction
Prescreening option                         ... SCHWARTZ
   Thresh                                   ... 2.500e-11
   Tcut                                     ... 2.500e-12
   Tpresel                                  ... 2.500e-12 
Coulomb Range Separation                    ... NOT USED
Exchange Range Separation                   ... NOT USED
Multipole approximations                    ... NOT USED
Finite Nucleus Model                        ... NOT USED
CABS basis                                  ... NOT available
Auxiliary Coulomb fitting basis             ... AVAILABLE
   # of basis functions in Aux-J            ...    454
   # of shells in Aux-J                     ...    146
   Maximum angular momentum in Aux-J        ...      4
Auxiliary J/K fitting basis                 ... NOT available
Auxiliary Correlation fitting basis         ... NOT available
Auxiliary 'external' fitting basis          ... NOT available

Checking pre-screening integrals            ... done (  0.0 sec) Dimension = 114
Check shell pair data                       ... done (  0.0 sec)
Shell pair information
Shell pair cut-off parameter TPreSel        ...   2.5e-12
Total number of shell pairs                 ...      6555
Shell pairs after pre-screening             ...      5801
Total number of primitive shell pairs       ...     21535
Primitive shell pairs kept                  ...     13885
          la=0 lb=0:   1234 shell pairs
          la=1 lb=0:   1550 shell pairs
          la=1 lb=1:    493 shell pairs
          la=2 lb=0:    874 shell pairs
          la=2 lb=1:    534 shell pairs
          la=2 lb=2:    161 shell pairs
          la=3 lb=0:    458 shell pairs
          la=3 lb=1:    288 shell pairs
          la=3 lb=2:    164 shell pairs
          la=3 lb=3:     45 shell pairs

Calculating one electron integrals          ... done (  0.0 sec)
Calculating ECP integrals                   ... done (  0.3 sec)
Calculating RI/J V-Matrix + Cholesky decomp.... done (  0.0 sec)
Calculating Nuclear repulsion               ... done (  0.0 sec) ENN=    538.825018569394 Eh

Diagonalization of the overlap matrix:
Smallest eigenvalue                        ... 7.847e-06
Time for diagonalization                   ...    0.072 sec
Threshold for overlap eigenvalues          ... 1.000e-07
Number of eigenvalues below threshold      ... 0
Time for construction of square roots      ...    0.013 sec
Total time needed                          ...    0.099 sec

-------------------
DFT GRID GENERATION
-------------------

General Integration Accuracy     IntAcc      ... 4.388
Radial Grid Type                 RadialGrid  ... OptM3 with GC (2021)
Angular Grid (max. ang.)         AngularGrid ... 4 (Lebedev-302)
Angular grid pruning method      GridPruning ... 4 (adaptive)
Weight generation scheme         WeightScheme... mBecke (2022)
Basis function cutoff            BFCut       ... 1.0000e-11
Integration weight cutoff        WCut        ... 1.0000e-14
Partially contracted basis set               ... off
Rotationally invariant grid construction     ... off
Angular grids for H and He will be reduced by one unit

Total number of grid points                  ...    71818
Total number of batches                      ...     1128
Average number of points per batch           ...       63
Average number of grid points per atom       ...     5985

--------------------
COSX GRID GENERATION
--------------------

GRIDX 1
-------
General Integration Accuracy     IntAcc      ... 3.816
Radial Grid Type                 RadialGrid  ... OptM3 with GC (2021)
Angular Grid (max. ang.)         AngularGrid ... 1 (Lebedev-50)
Angular grid pruning method      GridPruning ... 4 (adaptive)
Weight generation scheme         WeightScheme... mBecke (2022)
Basis function cutoff            BFCut       ... 1.0000e-11
Integration weight cutoff        WCut        ... 1.0000e-14
Partially contracted basis set               ... on
Rotationally invariant grid construction     ... off
Angular grids for H and He will be reduced by one unit

Total number of grid points                  ...    18040
Total number of batches                      ...      146
Average number of points per batch           ...      123
Average number of grid points per atom       ...     1503
UseSFitting                                  ... on

GRIDX 2
-------
General Integration Accuracy     IntAcc      ... 4.020
Radial Grid Type                 RadialGrid  ... OptM3 with GC (2021)
Angular Grid (max. ang.)         AngularGrid ... 2 (Lebedev-110)
Angular grid pruning method      GridPruning ... 4 (adaptive)
Weight generation scheme         WeightScheme... mBecke (2022)
Basis function cutoff            BFCut       ... 1.0000e-11
Integration weight cutoff        WCut        ... 1.0000e-14
Partially contracted basis set               ... on
Rotationally invariant grid construction     ... off
Angular grids for H and He will be reduced by one unit

Total number of grid points                  ...    25681
Total number of batches                      ...      208
Average number of points per batch           ...      123
Average number of grid points per atom       ...     2140
UseSFitting                                  ... on

GRIDX 3
-------
General Integration Accuracy     IntAcc      ... 4.338
Radial Grid Type                 RadialGrid  ... OptM3 with GC (2021)
Angular Grid (max. ang.)         AngularGrid ... 3 (Lebedev-194)
Angular grid pruning method      GridPruning ... 4 (adaptive)
Weight generation scheme         WeightScheme... mBecke (2022)
Basis function cutoff            BFCut       ... 1.0000e-11
Integration weight cutoff        WCut        ... 1.0000e-14
Partially contracted basis set               ... on
Rotationally invariant grid construction     ... off
Angular grids for H and He will be reduced by one unit

Total number of grid points                  ...    42452
Total number of batches                      ...      340
Average number of points per batch           ...      124
Average number of grid points per atom       ...     3538
UseSFitting                                  ... on
Initializing property integral containers    ... done (  0.5 sec)

SHARK setup successfully completed in   5.9 seconds

Maximum memory used throughout the entire STARTUP-calculation: 28.6 MB


           ************************************************************
           *        Program running with 6 parallel MPI-processes     *
           *              working on a common directory               *
           ************************************************************
Loading Hartree-Fock densities                     ... done
Atomic calculation to generate a density for atom 6 (I  with ECP)
  Multiplicity assumed   :    2
  Atomic configuration   : 1s2 2s2 2p6 3s2 3p6 4s2 3d10 4p6 5s2 4d10 5p5 
  Number of open shells  : 1
  Command: /home/orca/orca_6_0_1_linux_x86-64_shared_openmpi416/orca DIB_atom53.inp "" > DIB_atom53.out
Returned from the atomic calculation with res=0
Calculating cut-offs                               ... done
Initializing the effective Hamiltonian             ... done
Setting up the integral package (SHARK)            ... done
Starting the Coulomb interaction                   ... done (   0.1 sec)
Making the grid                                    ... done (   0.5 sec)
Mapping shells                                     ... done
Starting the XC term evaluation                    ... done (   0.2 sec)
  promolecular density results
     # of electrons  =    146.000136732
     EX              =   -379.814688856
     EC              =     -6.736242143
     EX+EC           =   -386.550930999
Transforming the Hamiltonian                       ... done (   0.2 sec)
Diagonalizing the Hamiltonian                      ... done (   0.0 sec)
Back transforming the eigenvectors                 ... done (   0.1 sec)
Now organizing SCF variables                       ... done
             **** ENERGY FILE WAS UPDATED (DIB.en.tmp) ****
Finished Guess after  11.5 sec
Maximum memory used throughout the entire GUESS-calculation: 21.1 MB


           ************************************************************
           *        Program running with 6 parallel MPI-processes     *
           *              working on a common directory               *
           ************************************************************
----------------------------------------D-I-I-S--------------------------------------------
Iteration    Energy (Eh)           Delta-E    RMSDP     MaxDP     DIISErr   Damp  Time(sec)
-------------------------------------------------------------------------------------------
               ***  Starting incremental Fock matrix formation  ***
    1    -826.1360006609297670     0.00e+00  2.11e-03  7.85e-02  5.83e-01  0.700   3.9
    2    -826.2474001062512343    -1.11e-01  1.36e-03  4.89e-02  3.96e-01  0.700   3.7
    3    -826.2957040990895621    -4.83e-02  7.22e-04  2.69e-02  2.69e-01  0.700   2.8
                               ***Turning on AO-DIIS***
    4    -826.3239540887300336    -2.82e-02  3.24e-04  1.41e-02  1.84e-01  0.700   2.4
    5    -826.3442381151862719    -2.03e-02  2.31e-04  1.10e-02  1.28e-01  0.700   3.2
    6    -826.3583375463742868    -1.41e-02  1.77e-04  7.30e-03  9.07e-02  0.700   3.1
    7    -826.3683520988936380    -1.00e-02  4.57e-04  1.55e-02  6.39e-02  0.000   4.3
                              *** Initializing SOSCF ***
---------------------------------------S-O-S-C-F--------------------------------------
Iteration    Energy (Eh)           Delta-E    RMSDP     MaxDP     MaxGrad    Time(sec)
--------------------------------------------------------------------------------------
    8    -826.3917271916202480    -2.34e-02  5.83e-05  3.18e-03  2.33e-03     3.3
               *** Restarting incremental Fock matrix formation ***
    9    -826.3917660041261115    -3.88e-05  4.97e-05  1.15e-03  5.63e-04     3.0
   10    -826.3917541479604552     1.19e-05  2.62e-05  5.35e-04  1.32e-03     4.3
   11    -826.3917713114553862    -1.72e-05  1.12e-05  3.53e-04  5.49e-05     3.6
   12    -826.3917713495166026    -3.81e-08  5.04e-06  1.49e-04  4.02e-05     2.4
   13    -826.3917714131650882    -6.36e-08  3.02e-06  1.05e-04  5.98e-06     3.1
   14    -826.3917714116009847     1.56e-09  4.74e-07  1.84e-05  6.97e-06     2.9
                 **** Energy Check signals convergence ****

               *****************************************************
               *                     SUCCESS                       *
               *           SCF CONVERGED AFTER  14 CYCLES          *
               *****************************************************

Recomputing exchange energy using gridx3       ... done (    3.210 sec)
Old exchange energy                            :    -14.959470243 Eh
New exchange energy                            :    -14.959461446 Eh
Exchange energy change after final integration :      0.000008797 Eh
Total energy after final integration           :   -826.391762615 Eh
             **** ENERGY FILE WAS UPDATED (DIB.en.tmp) ****

----------------
TOTAL SCF ENERGY
----------------

Total Energy       :       -826.39176261455191 Eh          -22487.26309 eV

Components:
Nuclear Repulsion  :        538.82501856939371 Eh           14662.17417 eV
Electronic Energy  :      -1365.21678998099469 Eh          -37149.43750 eV
One Electron Energy:      -2418.51789626407026 Eh          -65811.21774 eV
Two Electron Energy:       1053.30110628307557 Eh           28661.78024 eV

Virial components:
Potential Energy   :      -1283.04385559282491 Eh          -34913.39827 eV
Kinetic Energy     :        456.65209297827300 Eh           12426.13518 eV
Virial Ratio       :          2.80967475091343

DFT components:
N(Alpha)           :       45.000013487820 electrons
N(Beta)            :       45.000013487820 electrons
N(Total)           :       90.000026975639 electrons
E(X)               :      -59.478985557786 Eh       
E(C)               :       -3.884215967210 Eh       
E(XC)              :      -63.363201524996 Eh       

---------------
SCF CONVERGENCE
---------------

  Last Energy change         ...   -1.5641e-09  Tolerance :   1.0000e-08
  Last MAX-Density change    ...    1.8433e-05  Tolerance :   1.0000e-07
  Last RMS-Density change    ...    4.7355e-07  Tolerance :   5.0000e-09
  Last DIIS Error            ...    2.3331e-03  Tolerance :   5.0000e-07
  Last Orbital Gradient      ...    6.9748e-06  Tolerance :   1.0000e-05
  Last Orbital Rotation      ...    8.1967e-06  Tolerance :   1.0000e-05


----------------
ORBITAL ENERGIES
----------------

  NO   OCC          E(Eh)            E(eV) 
   0   2.0000     -10.238250      -278.5969 
   1   2.0000     -10.238229      -278.5964 
   2   2.0000     -10.205612      -277.7088 
   3   2.0000     -10.205568      -277.7076 
   4   2.0000     -10.205047      -277.6934 
   5   2.0000     -10.205044      -277.6934 
   6   2.0000      -6.849571      -186.3863 
   7   2.0000      -6.849570      -186.3863 
   8   2.0000      -4.874890      -132.6525 
   9   2.0000      -4.874889      -132.6525 
  10   2.0000      -4.861906      -132.2992 
  11   2.0000      -4.861906      -132.2992 
  12   2.0000      -4.861529      -132.2889 
  13   2.0000      -4.861529      -132.2889 
  14   2.0000      -1.922209       -52.3060 
  15   2.0000      -1.922208       -52.3059 
  16   2.0000      -1.918573       -52.2070 
  17   2.0000      -1.918573       -52.2070 
  18   2.0000      -1.918422       -52.2029 
  19   2.0000      -1.918421       -52.2029 
  20   2.0000      -1.907322       -51.9009 
  21   2.0000      -1.907322       -51.9009 
  22   2.0000      -1.907319       -51.9008 
  23   2.0000      -1.907319       -51.9008 
  24   2.0000      -0.886532       -24.1238 
  25   2.0000      -0.788905       -21.4672 
  26   2.0000      -0.773306       -21.0427 
  27   2.0000      -0.713903       -19.4263 
  28   2.0000      -0.678271       -18.4567 
  29   2.0000      -0.633335       -17.2339 
  30   2.0000      -0.600943       -16.3525 
  31   2.0000      -0.511646       -13.9226 
  32   2.0000      -0.485473       -13.2104 
  33   2.0000      -0.469721       -12.7817 
  34   2.0000      -0.446729       -12.1561 
  35   2.0000      -0.404648       -11.0110 
  36   2.0000      -0.386898       -10.5280 
  37   2.0000      -0.374378       -10.1873 
  38   2.0000      -0.340366        -9.2618 
  39   2.0000      -0.322131        -8.7656 
  40   2.0000      -0.282131        -7.6772 
  41   2.0000      -0.274213        -7.4617 
  42   2.0000      -0.273667        -7.4468 
  43   2.0000      -0.270363        -7.3570 
  44   2.0000      -0.241388        -6.5685 
  45   0.0000      -0.055612        -1.5133 
  46   0.0000      -0.046963        -1.2779 
  47   0.0000      -0.040637        -1.1058 
  48   0.0000      -0.038900        -1.0585 
  49   0.0000       0.058177         1.5831 
  50   0.0000       0.067007         1.8233 
  51   0.0000       0.076971         2.0945 
  52   0.0000       0.103119         2.8060 
  53   0.0000       0.103378         2.8131 
  54   0.0000       0.113930         3.1002 
  55   0.0000       0.126711         3.4480 
*Only the first 10 virtual orbitals were printed.
Total SCF time: 0 days 0 hours 0 min 52 sec 
Finished LeanSCF after  52.2 sec

Maximum memory used throughout the entire LEANSCF-calculation: 29.8 MB


           ************************************************************
           *        Program running with 6 parallel MPI-processes     *
           *              working on a common directory               *
           ************************************************************

------------------------------------------------------------------------------
                         ORCA PROPERTY INTEGRAL CALCULATIONS
------------------------------------------------------------------------------

GBWName                                   ... DIB.gbw
Number of atoms                           ...     12
Number of basis functions                 ...    310
Max core memory                           ...   8000 MB

Dipole integrals                          ... YES
Quadrupole integrals                      ...  NO
Linear momentum integrals                 ...  NO
Angular momentum integrals                ...  NO
Higher moments length integrals           ...  NO
Higher moments velocity integrals         ...  NO
Kinetic energy integrals                  ...  NO
GIAO right hand sides                     ...  NO
GIAO dipole derivative integrals          ...  NO
SOC integrals                             ...  NO
EPR diamagnetic integrals (GIAO)          ...  NO
EPR gauge integrals                       ...  NO
Field gradient integrals                  ...  NO (   0 nuclei)
Spin-dipole/Fermi contact integrals       ...  NO (   0 nuclei)
Contact density integrals                 ...  NO (   0 nuclei)
Nucleus-orbit integrals                   ...  NO (   0 nuclei)
Geometric perturbations                   ...  NO (  12 nuclei)

Choice of electric origin   ... Center of mass
Position of electric origin ... (  0.0000, -0.0000, -0.0001) 
Choice of magnetic origin   ... GIAO
Position of magnetic origin ... (  0.0000,  0.0000,  0.0000) 

Calculating integrals                     ... Electric Dipole (Length)     done (  0.0 sec)

Property integrals calculated in   0.0 sec

Maximum memory used throughout the entire PROPINT-calculation: 18.8 MB


-------------------------------------------------------------------------------
                          DFT DISPERSION CORRECTION                            
                                                                               
                              DFTD3 V3.1  Rev 1                                
                          USING Becke-Johnson damping                          
-------------------------------------------------------------------------------
-------------------------   ----------------
Dispersion correction           -0.030666558
-------------------------   ----------------


-------------------------   --------------------
FINAL SINGLE POINT ENERGY      -826.422429172075
-------------------------   --------------------



           ************************************************************
           *        Program running with 6 parallel MPI-processes     *
           *              working on a common directory               *
           ************************************************************
------------------------------------------------------------------------------
                         ORCA SCF GRADIENT CALCULATION
------------------------------------------------------------------------------

Nuc. rep. gradient        (SHARK) ... done (  0.0 sec)
HCore & Overlap gradient  (SHARK) ... done (  0.1 sec)
ECP gradient              (SHARK) ... done (  0.9 sec)
Split-RIJ-J gradient      (SHARK) ... done (  0.8 sec)
COSX-gradient                     ... done ( 10.4 sec)
XC gradient                       ... done (  1.9 sec)
Dispersion correction             ... done (  0.0 sec)

-------------------
DISPERSION GRADIENT
-------------------

   1   C   :    0.000324802    0.000409722   -0.000108676
   2   C   :    0.000553418   -0.000184004    0.000049904
   3   C   :    0.000328047   -0.000468279    0.000125279
   4   C   :   -0.000324802   -0.000409719    0.000108674
   5   C   :   -0.000553415    0.000184007   -0.000049849
   6   C   :   -0.000328049    0.000468286   -0.000125266
   7   I   :   -0.001130868   -0.001426578    0.000378347
   8   I   :    0.001130869    0.001426559   -0.000378459
   9   H   :    0.000340122   -0.000212006    0.000057044
  10   H   :    0.000300465   -0.000262042    0.000070270
  11   H   :   -0.000340123    0.000212013   -0.000056987
  12   H   :   -0.000300466    0.000262041   -0.000070280

Difference to translation invariance:
           :   -0.0000000000    0.0000000000   -0.0000000000

Difference to rotation invariance:
           :   -0.0000000000   -0.0000000000   -0.0000000000

Norm of the Dispersion gradient    ...    0.0030839281
RMS gradient                       ...    0.0005139880
MAX gradient                       ...    0.0014265784

------------------
CARTESIAN GRADIENT
------------------

   1   C   :    0.000450132    0.000562035   -0.000158532
   2   C   :   -0.009899417   -0.002436425    0.000634646
   3   C   :   -0.000162192    0.009883602   -0.002633543
   4   C   :   -0.000450407   -0.000552011    0.000153666
   5   C   :    0.009898508    0.002415021   -0.000627149
   6   C   :    0.000162650   -0.009872786    0.002630034
   7   I   :   -0.007845092   -0.009891794    0.002618744
   8   I   :    0.007845466    0.009892247   -0.002621031
   9   H   :    0.012408448   -0.000407194    0.000130967
  10   H   :    0.003641188   -0.011462146    0.003060991
  11   H   :   -0.012408157    0.000407706   -0.000123877
  12   H   :   -0.003641127    0.011461746   -0.003064916

Difference to translation invariance:
           :    0.0000000000    0.0000000000   -0.0000000000

Difference to rotation invariance:
           :   -0.0000237453   -0.0000284515   -0.0000481410

Norm of the Cartesian gradient     ...    0.0369802396
RMS gradient                       ...    0.0061633733
MAX gradient                       ...    0.0124084480

-------
TIMINGS
-------

Total SCF gradient time     ....       14.062 sec

Densities                   ....       0.001 sec  (  0.0%)
One electron gradient       ....       0.094 sec  (  0.7%)
RI-J Coulomb gradient       ....       0.816 sec  (  5.8%)
COSX gradient               ....      10.368 sec  ( 73.7%)
XC gradient                 ....       1.869 sec  ( 13.3%)

Maximum memory used throughout the entire SCFGRAD-calculation: 37.7 MB
------------------------------------------------------------------------------
                         ORCA GEOMETRY RELAXATION STEP
------------------------------------------------------------------------------

Reading the OPT-File                    .... done
Getting information on internals        .... done
Copying old internal coords+grads       .... done
Making the new internal coordinates     .... (2022 redundants) done
Validating the new internal coordinates .... (2022 redundants) done
Calculating the B-matrix                .... done
Calculating the G,G- and P matrices     .... done
Transforming gradient to internals      .... done
Projecting the internal gradient        .... done
Number of atoms                         ....  12
Number of internal coordinates          ....  54
Current Energy                          ....  -826.422429172 Eh
Current gradient norm                   ....     0.036980240 Eh/bohr
Maximum allowed component of the step   ....  0.300
Current trust radius                    ....  0.300
Evaluating the initial hessian          ....  (Almloef) done
Projecting the Hessian                  .... done
Forming the augmented Hessian           .... done
Diagonalizing the augmented Hessian     .... done
Last element of RFO vector              ....  0.987899752
Lowest eigenvalues of augmented Hessian:
 -0.004843942  0.026033766  0.026035656  0.026036667  0.026038206
Length of the computed step             ....  0.156993436
The final length of the internal step   ....  0.156993436
Converting the step to Cartesian space:
 Initial RMS(Int)=    0.0213641007
Transforming coordinates:
 Iter   0:  RMS(Cart)=    0.0313428214 RMS(Int)=    0.8552755223
done
Storing new coordinates                 .... done

                                .--------------------.
          ----------------------|Geometry convergence|-------------------------
          Item                value                   Tolerance       Converged
          ---------------------------------------------------------------------
          RMS gradient        0.0048748713            0.0001000000      NO
          MAX gradient        0.0128948698            0.0003000000      NO
          RMS step            0.0213641007            0.0020000000      NO
          MAX step            0.0961915116            0.0040000000      NO
          ........................................................
          Max(Bonds)      0.0509      Max(Angles)    0.58
          Max(Dihed)        0.01      Max(Improp)    0.00
          ---------------------------------------------------------------------

The optimization has not yet converged - more geometry cycles are needed


    ---------------------------------------------------------------------------
                         Redundant Internal Coordinates
                            (Angstroem and degrees)

        Definition                    Value    dE/dq     Step     New-Value
    ----------------------------------------------------------------------------
     1. B(C   1,C   0)                1.3948  0.006670 -0.0057    1.3891   
     2. B(C   2,C   1)                1.3949  0.006000 -0.0051    1.3897   
     3. B(C   3,C   2)                1.3948  0.006674 -0.0057    1.3891   
     4. B(C   4,C   3)                1.3948  0.006656 -0.0057    1.3891   
     5. B(C   5,C   4)                1.3949  0.006012 -0.0051    1.3897   
     6. B(C   5,C   0)                1.3948  0.006678 -0.0057    1.3891   
     7. B(I   6,C   3)                2.1490  0.012894 -0.0509    2.0981   
     8. B(I   7,C   0)                2.1490  0.012895 -0.0509    2.0981   
     9. B(H   8,C   1)                1.1000  0.012359 -0.0186    1.0814   
    10. B(H   9,C   2)                1.1000  0.012353 -0.0186    1.0814   
    11. B(H  10,C   4)                1.1000  0.012358 -0.0186    1.0814   
    12. B(H  11,C   5)                1.1000  0.012354 -0.0186    1.0814   
    13. A(C   1,C   0,C   5)          120.00 -0.004160    0.58    120.58   
    14. A(C   5,C   0,I   7)          120.00  0.002083   -0.29    119.71   
    15. A(C   1,C   0,I   7)          120.00  0.002076   -0.29    119.71   
    16. A(C   2,C   1,H   8)          120.00  0.000200   -0.05    119.95   
    17. A(C   0,C   1,H   8)          120.00 -0.002271    0.34    120.35   
    18. A(C   0,C   1,C   2)          120.00  0.002071   -0.29    119.71   
    19. A(C   3,C   2,H   9)          120.00 -0.002274    0.34    120.34   
    20. A(C   1,C   2,C   3)          120.00  0.002088   -0.29    119.71   
    21. A(C   1,C   2,H   9)          120.00  0.000186   -0.05    119.95   
    22. A(C   2,C   3,I   6)          120.00  0.002083   -0.29    119.71   
    23. A(C   2,C   3,C   4)          120.00 -0.004156    0.58    120.58   
    24. A(C   4,C   3,I   6)          120.00  0.002074   -0.29    119.71   
    25. A(C   3,C   4,H  10)          120.00 -0.002273    0.34    120.35   
    26. A(C   3,C   4,C   5)          120.00  0.002072   -0.29    119.71   
    27. A(C   5,C   4,H  10)          120.00  0.000200   -0.05    119.95   
    28. A(C   0,C   5,C   4)          120.00  0.002084   -0.29    119.71   
    29. A(C   4,C   5,H  11)          120.00  0.000188   -0.05    119.95   
    30. A(C   0,C   5,H  11)          120.00 -0.002272    0.34    120.34   
    31. D(H   8,C   1,C   0,C   5)   -179.99  0.000002   -0.00   -180.00   
    32. D(H   8,C   1,C   0,I   7)      0.01 -0.000003    0.00      0.01   
    33. D(C   2,C   1,C   0,I   7)   -179.99 -0.000002    0.00   -179.99   
    34. D(C   2,C   1,C   0,C   5)      0.01  0.000002   -0.00      0.00   
    35. D(H   9,C   2,C   1,C   0)    179.99 -0.000002    0.00    180.00   
    36. D(C   3,C   2,C   1,C   0)     -0.01 -0.000002    0.00     -0.00   
    37. D(C   3,C   2,C   1,H   8)    179.99 -0.000002    0.00    180.00   
    38. D(H   9,C   2,C   1,H   8)     -0.01 -0.000002    0.00     -0.00   
    39. D(I   6,C   3,C   2,H   9)      0.00 -0.000004    0.01      0.01   
    40. D(I   6,C   3,C   2,C   1)   -180.00 -0.000004    0.01   -179.99   
    41. D(C   4,C   3,C   2,H   9)   -180.00 -0.000000    0.00   -180.00   
    42. D(C   4,C   3,C   2,C   1)      0.00  0.000000   -0.00      0.00   
    43. D(H  10,C   4,C   3,C   2)   -180.00  0.000001   -0.00   -180.00   
    44. D(C   5,C   4,C   3,I   6)   -180.00  0.000005   -0.01   -180.01   
    45. D(C   5,C   4,C   3,C   2)      0.00  0.000002   -0.00     -0.00   
    46. D(H  10,C   4,C   3,I   6)      0.00  0.000005   -0.01     -0.01   
    47. D(H  11,C   5,C   4,H  10)     -0.00 -0.000001    0.00     -0.00   
    48. D(C   0,C   5,C   4,H  10)    180.00 -0.000001    0.00    180.00   
    49. D(C   0,C   5,C   4,C   3)     -0.00 -0.000002    0.00      0.00   
    50. D(H  11,C   5,C   0,I   7)     -0.00  0.000004   -0.01     -0.01   
    51. D(H  11,C   5,C   0,C   1)    180.00 -0.000000    0.00    180.00   
    52. D(H  11,C   5,C   4,C   3)    180.00 -0.000002    0.00    180.00   
    53. D(C   4,C   5,C   0,I   7)    180.00  0.000004   -0.01    179.99   
    54. D(C   4,C   5,C   0,C   1)     -0.00  0.000000   -0.00     -0.00   
    ----------------------------------------------------------------------------

Geometry step timings:
Preparation and reading OPT file:      0.002 s (25.204 %)
Internal coordinates            :      0.000 s ( 0.157 %)
B/P matrices and projection     :      0.000 s ( 2.446 %)
Hessian update/contruction      :      0.004 s (43.404 %)
Making the step                 :      0.000 s ( 2.425 %)
Converting the step to Cartesian:      0.000 s ( 0.387 %)
Storing new data                :      0.001 s (10.109 %)
Checking convergence            :      0.000 s ( 0.042 %)
Final printing                  :      0.002 s (15.754 %)
Total time                      :      0.010 s

Time for energy+gradient        :     90.739 s
Time for complete geometry iter :     91.734 s

         *************************************************************
         *                GEOMETRY OPTIMIZATION CYCLE   2            *
         *************************************************************
---------------------------------
CARTESIAN COORDINATES (ANGSTROEM)
---------------------------------
  C      0.841330    1.061327   -0.281447
  C      1.380336   -0.175573    0.048942
  C      0.535075   -1.241854    0.331676
  C     -0.841332   -1.061323    0.281441
  C     -1.380336    0.175573   -0.048920
  C     -0.535072    1.241859   -0.331676
  I     -2.117400   -2.671066    0.708536
  I      2.117400    2.671043   -0.708614
  H      2.452467   -0.311798    0.086942
  H      0.950520   -2.206491    0.589286
  H     -2.452467    0.311816   -0.086853
  H     -0.950520    2.206486   -0.589314

----------------------------
CARTESIAN COORDINATES (A.U.)
----------------------------
  NO LB      ZA    FRAG     MASS         X           Y           Z
   0 C     6.0000    0    12.011    1.589883    2.005618   -0.531857
   1 C     6.0000    0    12.011    2.608457   -0.331785    0.092487
   2 C     6.0000    0    12.011    1.011144   -2.346763    0.626777
   3 C     6.0000    0    12.011   -1.589888   -2.005610    0.531847
   4 C     6.0000    0    12.011   -2.608457    0.331785   -0.092445
   5 C     6.0000    0    12.011   -1.011140    2.346773   -0.626776
   6 I    25.0000*   0   126.900   -4.001307   -5.047583    1.338939
   7 I    25.0000*   0   126.900    4.001307    5.047540   -1.339086
   8 H     1.0000    0     1.008    4.634491   -0.589212    0.164296
   9 H     1.0000    0     1.008    1.796222   -4.169663    1.113590
  10 H     1.0000    0     1.008   -4.634491    0.589246   -0.164129
  11 H     1.0000    0     1.008   -1.796223    4.169655   -1.113642
* core charge reduced due to ECP

--------------------------------
INTERNAL COORDINATES (ANGSTROEM)
--------------------------------
 C      0   0   0     0.000000000000     0.00000000     0.00000000
 C      1   0   0     1.389103031718     0.00000000     0.00000000
 C      2   1   0     1.389733450166   119.70750243     0.00000000
 C      3   2   1     1.389104233316   119.70851181     0.00000000
 C      4   3   2     1.389091821684   120.58407564     0.00000000
 C      1   2   3     1.389099824000   120.58399563     0.00000000
 I      4   3   2     2.098101723663   119.70726147   180.00781439
 I      1   2   3     2.098097424006   119.70857884   180.01021573
 H      2   1   3     1.081418340767   120.34566417   180.00026744
 H      3   2   1     1.081425988632   119.94727848   179.99727986
 H      5   4   3     1.081418496471   120.34578470   180.00174971
 H      6   1   2     1.081425226555   120.34439729   179.99904955

---------------------------
INTERNAL COORDINATES (A.U.)
---------------------------
 C      0   0   0     0.000000000000     0.00000000     0.00000000
 C      1   0   0     2.625024301747     0.00000000     0.00000000
 C      2   1   0     2.626215619964   119.70750243     0.00000000
 C      3   2   1     2.625026572439   119.70851181     0.00000000
 C      4   3   2     2.625003117852   120.58407564     0.00000000
 C      1   2   3     2.625018240039   120.58399563     0.00000000
 I      4   3   2     3.964837658831   119.70726147   180.00781439
 I      1   2   3     3.964829533656   119.70857884   180.01021573
 H      2   1   3     2.043584500250   120.34566417   180.00026744
 H      3   2   1     2.043598952620   119.94727848   179.99727986
 H      5   4   3     2.043584794487   120.34578470   180.00174971
 H      6   1   2     2.043597512502   120.34439729   179.99904955



           ************************************************************
           *        Program running with 6 parallel MPI-processes     *
           *              working on a common directory               *
           ************************************************************
------------------------------------------------------------------------------
                   ___                                                        
                  /   \      - P O W E R E D   B Y -                         
                 /     \                                                     
                 |  |  |   _    _      __       _____    __    __             
                 |  |  |  | |  | |    /  \     |  _  \  |  |  /  |          
                  \  \/   | |  | |   /    \    | | | |  |  | /  /          
                 / \  \   | |__| |  /  /\  \   | |_| |  |  |/  /          
                |  |  |   |  __  | /  /__\  \  |    /   |      \           
                |  |  |   | |  | | |   __   |  |    \   |  |\   \          
                \     /   | |  | | |  |  |  |  | |\  \  |  | \   \       
                 \___/    |_|  |_| |__|  |__|  |_| \__\ |__|  \__/        
                                                                              
                      - O R C A' S   B I G   F R I E N D -                    
                                      &                                       
                       - I N T E G R A L  F E E D E R -                       
                                                                              
 v1 FN, 2020, v2 2021, v3 2022-2024                                           
------------------------------------------------------------------------------


----------------------
SHARK INTEGRAL PACKAGE
----------------------

Number of atoms                             ...     12
Number of basis functions                   ...    310
Number of shells                            ...    114
Maximum angular momentum                    ...      3
Integral batch strategy                     ... SHARK/LIBINT Hybrid
RI-J (if used) integral strategy            ... SPLIT-RIJ (Revised 2003 algorithm where possible)
Printlevel                                  ...      1
Contraction scheme used                     ... SEGMENTED contraction
Prescreening option                         ... SCHWARTZ
   Thresh                                   ... 2.500e-11
   Tcut                                     ... 2.500e-12
   Tpresel                                  ... 2.500e-12 
Coulomb Range Separation                    ... NOT USED
Exchange Range Separation                   ... NOT USED
Multipole approximations                    ... NOT USED
Finite Nucleus Model                        ... NOT USED
CABS basis                                  ... NOT available
Auxiliary Coulomb fitting basis             ... AVAILABLE
   # of basis functions in Aux-J            ...    454
   # of shells in Aux-J                     ...    146
   Maximum angular momentum in Aux-J        ...      4
Auxiliary J/K fitting basis                 ... NOT available
Auxiliary Correlation fitting basis         ... NOT available
Auxiliary 'external' fitting basis          ... NOT available

Checking pre-screening integrals            ... done (  0.0 sec) Dimension = 114
Check shell pair data                       ... done (  0.0 sec)
Shell pair information
Shell pair cut-off parameter TPreSel        ...   2.5e-12
Total number of shell pairs                 ...      6555
Shell pairs after pre-screening             ...      5821
Total number of primitive shell pairs       ...     21535
Primitive shell pairs kept                  ...     13965
          la=0 lb=0:   1238 shell pairs
          la=1 lb=0:   1550 shell pairs
          la=1 lb=1:    495 shell pairs
          la=2 lb=0:    876 shell pairs
          la=2 lb=1:    538 shell pairs
          la=2 lb=2:    161 shell pairs
          la=3 lb=0:    466 shell pairs
          la=3 lb=1:    288 shell pairs
          la=3 lb=2:    164 shell pairs
          la=3 lb=3:     45 shell pairs

Calculating one electron integrals          ... done (  0.0 sec)
Calculating ECP integrals                   ... done (  0.2 sec)
Calculating RI/J V-Matrix + Cholesky decomp.... done (  0.0 sec)
Calculating Nuclear repulsion               ... done (  0.0 sec) ENN=    546.247156761915 Eh

Diagonalization of the overlap matrix:
Smallest eigenvalue                        ... 7.396e-06
Time for diagonalization                   ...    0.009 sec
Threshold for overlap eigenvalues          ... 1.000e-07
Number of eigenvalues below threshold      ... 0
Time for construction of square roots      ...    0.015 sec
Total time needed                          ...    0.041 sec

-------------------
DFT GRID GENERATION
-------------------

General Integration Accuracy     IntAcc      ... 4.388
Radial Grid Type                 RadialGrid  ... OptM3 with GC (2021)
Angular Grid (max. ang.)         AngularGrid ... 4 (Lebedev-302)
Angular grid pruning method      GridPruning ... 4 (adaptive)
Weight generation scheme         WeightScheme... mBecke (2022)
Basis function cutoff            BFCut       ... 1.0000e-11
Integration weight cutoff        WCut        ... 1.0000e-14
Partially contracted basis set               ... off
Rotationally invariant grid construction     ... off
Angular grids for H and He will be reduced by one unit

Total number of grid points                  ...    71790
Total number of batches                      ...     1128
Average number of points per batch           ...       63
Average number of grid points per atom       ...     5982

--------------------
COSX GRID GENERATION
--------------------

GRIDX 1
-------
General Integration Accuracy     IntAcc      ... 3.816
Radial Grid Type                 RadialGrid  ... OptM3 with GC (2021)
Angular Grid (max. ang.)         AngularGrid ... 1 (Lebedev-50)
Angular grid pruning method      GridPruning ... 4 (adaptive)
Weight generation scheme         WeightScheme... mBecke (2022)
Basis function cutoff            BFCut       ... 1.0000e-11
Integration weight cutoff        WCut        ... 1.0000e-14
Partially contracted basis set               ... on
Rotationally invariant grid construction     ... off
Angular grids for H and He will be reduced by one unit

Total number of grid points                  ...    18024
Total number of batches                      ...      146
Average number of points per batch           ...      123
Average number of grid points per atom       ...     1502
UseSFitting                                  ... on

GRIDX 2
-------
General Integration Accuracy     IntAcc      ... 4.020
Radial Grid Type                 RadialGrid  ... OptM3 with GC (2021)
Angular Grid (max. ang.)         AngularGrid ... 2 (Lebedev-110)
Angular grid pruning method      GridPruning ... 4 (adaptive)
Weight generation scheme         WeightScheme... mBecke (2022)
Basis function cutoff            BFCut       ... 1.0000e-11
Integration weight cutoff        WCut        ... 1.0000e-14
Partially contracted basis set               ... on
Rotationally invariant grid construction     ... off
Angular grids for H and He will be reduced by one unit

Total number of grid points                  ...    25654
Total number of batches                      ...      206
Average number of points per batch           ...      124
Average number of grid points per atom       ...     2138
UseSFitting                                  ... on

GRIDX 3
-------
General Integration Accuracy     IntAcc      ... 4.338
Radial Grid Type                 RadialGrid  ... OptM3 with GC (2021)
Angular Grid (max. ang.)         AngularGrid ... 3 (Lebedev-194)
Angular grid pruning method      GridPruning ... 4 (adaptive)
Weight generation scheme         WeightScheme... mBecke (2022)
Basis function cutoff            BFCut       ... 1.0000e-11
Integration weight cutoff        WCut        ... 1.0000e-14
Partially contracted basis set               ... on
Rotationally invariant grid construction     ... off
Angular grids for H and He will be reduced by one unit

Total number of grid points                  ...    42418
Total number of batches                      ...      338
Average number of points per batch           ...      125
Average number of grid points per atom       ...     3535
UseSFitting                                  ... on
Initializing property integral containers    ... done (  0.0 sec)

SHARK setup successfully completed in   3.6 seconds

Maximum memory used throughout the entire STARTUP-calculation: 29.3 MB


           ************************************************************
           *        Program running with 6 parallel MPI-processes     *
           *              working on a common directory               *
           ************************************************************
Occupation numbers will be reassigned to an Aufbau configuration
             **** ENERGY FILE WAS UPDATED (DIB.en.tmp) ****
Finished Guess after   0.9 sec
Maximum memory used throughout the entire GUESS-calculation: 18.7 MB


           ************************************************************
           *        Program running with 6 parallel MPI-processes     *
           *              working on a common directory               *
           ************************************************************
----------------------------------------D-I-I-S--------------------------------------------
Iteration    Energy (Eh)           Delta-E    RMSDP     MaxDP     DIISErr   Damp  Time(sec)
-------------------------------------------------------------------------------------------
               ***  Starting incremental Fock matrix formation  ***
    1    -826.3927039849443190     0.00e+00  1.16e-04  3.36e-03  2.97e-02  0.700   3.0
    2    -826.3929647233412652    -2.61e-04  9.40e-05  2.66e-03  2.09e-02  0.700   3.1
                               ***Turning on AO-DIIS***
    3    -826.3931407544077956    -1.76e-04  7.36e-05  1.89e-03  1.47e-02  0.700   3.1
    4    -826.3932581739995840    -1.17e-04  1.71e-04  4.45e-03  1.03e-02  0.000   3.0
                              *** Initializing SOSCF ***
---------------------------------------S-O-S-C-F--------------------------------------
Iteration    Energy (Eh)           Delta-E    RMSDP     MaxDP     MaxGrad    Time(sec)
--------------------------------------------------------------------------------------
    5    -826.3935526222071530    -2.94e-04  1.78e-05  4.31e-04  5.18e-04     4.9
               *** Restarting incremental Fock matrix formation ***
    6    -826.3935550118978881    -2.39e-06  1.81e-05  4.18e-04  3.08e-04     3.4
    7    -826.3935527724613621     2.24e-06  1.07e-05  2.36e-04  5.82e-04     4.6
    8    -826.3935561775558654    -3.41e-06  1.47e-06  4.93e-05  1.09e-05     3.5
    9    -826.3935561773444078     2.11e-10  9.64e-07  2.22e-05  1.32e-05     2.9
                 **** Energy Check signals convergence ****

               *****************************************************
               *                     SUCCESS                       *
               *           SCF CONVERGED AFTER   9 CYCLES          *
               *****************************************************

Recomputing exchange energy using gridx3       ... done (    3.797 sec)
Old exchange energy                            :    -14.975933249 Eh
New exchange energy                            :    -14.975926637 Eh
Exchange energy change after final integration :      0.000006612 Eh
Total energy after final integration           :   -826.393549565 Eh
             **** ENERGY FILE WAS UPDATED (DIB.en.tmp) ****

----------------
TOTAL SCF ENERGY
----------------

Total Energy       :       -826.39354956540774 Eh          -22487.31172 eV

Components:
Nuclear Repulsion  :        546.24715676191522 Eh           14864.14081 eV
Electronic Energy  :      -1372.64071293925963 Eh          -37351.45271 eV
One Electron Energy:      -2433.32689503065149 Eh          -66214.19108 eV
Two Electron Energy:       1060.68618209139186 Eh           28862.73837 eV

Virial components:
Potential Energy   :      -1283.33509510373142 Eh          -34921.32330 eV
Kinetic Energy     :        456.94154553832368 Eh           12434.01159 eV
Virial Ratio       :          2.80853231148381

DFT components:
N(Alpha)           :       45.000014013311 electrons
N(Beta)            :       45.000014013311 electrons
N(Total)           :       90.000028026621 electrons
E(X)               :      -59.536148102012 Eh       
E(C)               :       -3.889109448977 Eh       
E(XC)              :      -63.425257550989 Eh       

---------------
SCF CONVERGENCE
---------------

  Last Energy change         ...   -2.1146e-10  Tolerance :   1.0000e-08
  Last MAX-Density change    ...    2.2247e-05  Tolerance :   1.0000e-07
  Last RMS-Density change    ...    9.6426e-07  Tolerance :   5.0000e-09
  Last DIIS Error            ...    5.1753e-04  Tolerance :   5.0000e-07
  Last Orbital Gradient      ...    1.3203e-05  Tolerance :   1.0000e-05
  Last Orbital Rotation      ...    1.2976e-05  Tolerance :   1.0000e-05


Total SCF time: 0 days 0 hours 0 min 37 sec 
Finished LeanSCF after  37.2 sec

Maximum memory used throughout the entire LEANSCF-calculation: 30.1 MB


           ************************************************************
           *        Program running with 6 parallel MPI-processes     *
           *              working on a common directory               *
           ************************************************************

------------------------------------------------------------------------------
                         ORCA PROPERTY INTEGRAL CALCULATIONS
------------------------------------------------------------------------------

GBWName                                   ... DIB.gbw
Number of atoms                           ...     12
Number of basis functions                 ...    310
Max core memory                           ...   8000 MB

Dipole integrals                          ... YES
Quadrupole integrals                      ...  NO
Linear momentum integrals                 ...  NO
Angular momentum integrals                ...  NO
Higher moments length integrals           ...  NO
Higher moments velocity integrals         ...  NO
Kinetic energy integrals                  ...  NO
GIAO right hand sides                     ...  NO
GIAO dipole derivative integrals          ...  NO
SOC integrals                             ...  NO
EPR diamagnetic integrals (GIAO)          ...  NO
EPR gauge integrals                       ...  NO
Field gradient integrals                  ...  NO (   0 nuclei)
Spin-dipole/Fermi contact integrals       ...  NO (   0 nuclei)
Contact density integrals                 ...  NO (   0 nuclei)
Nucleus-orbit integrals                   ...  NO (   0 nuclei)
Geometric perturbations                   ...  NO (  12 nuclei)

Choice of electric origin   ... Center of mass
Position of electric origin ... (  0.0000, -0.0000, -0.0001) 
Choice of magnetic origin   ... GIAO
Position of magnetic origin ... (  0.0000,  0.0000,  0.0000) 

Calculating integrals                     ... Electric Dipole (Length)     done (  0.0 sec)

Property integrals calculated in   0.0 sec

Maximum memory used throughout the entire PROPINT-calculation: 18.8 MB


-------------------------------------------------------------------------------
                          DFT DISPERSION CORRECTION                            
                                                                               
                              DFTD3 V3.1  Rev 1                                
                          USING Becke-Johnson damping                          
-------------------------------------------------------------------------------
-------------------------   ----------------
Dispersion correction           -0.030946154
-------------------------   ----------------


-------------------------   --------------------
FINAL SINGLE POINT ENERGY      -826.424495719252
-------------------------   --------------------



           ************************************************************
           *        Program running with 6 parallel MPI-processes     *
           *              working on a common directory               *
           ************************************************************
------------------------------------------------------------------------------
                         ORCA SCF GRADIENT CALCULATION
------------------------------------------------------------------------------

Nuc. rep. gradient        (SHARK) ... done (  0.0 sec)
HCore & Overlap gradient  (SHARK) ... done (  0.1 sec)
ECP gradient              (SHARK) ... done (  0.9 sec)
Split-RIJ-J gradient      (SHARK) ... done (  0.8 sec)
COSX-gradient                     ... done ( 10.7 sec)
XC gradient                       ... done (  1.8 sec)
Dispersion correction             ... done (  0.0 sec)

-------------------
DISPERSION GRADIENT
-------------------

   1   C   :    0.000334306    0.000421722   -0.000111836
   2   C   :    0.000570035   -0.000153948    0.000041919
   3   C   :    0.000302347   -0.000491623    0.000131445
   4   C   :   -0.000334307   -0.000421720    0.000111837
   5   C   :   -0.000570035    0.000153950   -0.000041899
   6   C   :   -0.000302345    0.000491626   -0.000131434
   7   I   :   -0.001129362   -0.001424677    0.000377923
   8   I   :    0.001129361    0.001424665   -0.000377975
   9   H   :    0.000344394   -0.000204319    0.000055000
  10   H   :    0.000293890   -0.000268029    0.000071844
  11   H   :   -0.000344395    0.000204323   -0.000054977
  12   H   :   -0.000293889    0.000268029   -0.000071845

Difference to translation invariance:
           :   -0.0000000000    0.0000000000    0.0000000000

Difference to rotation invariance:
           :    0.0000000000    0.0000000000   -0.0000000000

Norm of the Dispersion gradient    ...    0.0030911613
RMS gradient                       ...    0.0005151935
MAX gradient                       ...    0.0014246767

------------------
CARTESIAN GRADIENT
------------------

   1   C   :    0.001690764    0.002153285   -0.000581464
   2   C   :   -0.000523154   -0.000553900    0.000145594
   3   C   :    0.000402883    0.000642107   -0.000169450
   4   C   :   -0.001692944   -0.002146760    0.000579729
   5   C   :    0.000523250    0.000543088   -0.000145118
   6   C   :   -0.000399515   -0.000636419    0.000169156
   7   I   :    0.001375278    0.001753700   -0.000473378
   8   I   :   -0.001376562   -0.001755429    0.000473200
   9   H   :    0.000421492    0.000512783   -0.000134171
  10   H   :   -0.000402499   -0.000526701    0.000140907
  11   H   :   -0.000421601   -0.000512241    0.000137266
  12   H   :    0.000402608    0.000526487   -0.000142272

Difference to translation invariance:
           :    0.0000000000   -0.0000000000   -0.0000000000

Difference to rotation invariance:
           :    0.0000191955   -0.0000748466   -0.0001352000

Norm of the Cartesian gradient     ...    0.0055009010
RMS gradient                       ...    0.0009168168
MAX gradient                       ...    0.0021532852

-------
TIMINGS
-------

Total SCF gradient time     ....       14.343 sec

Densities                   ....       0.001 sec  (  0.0%)
One electron gradient       ....       0.089 sec  (  0.6%)
RI-J Coulomb gradient       ....       0.794 sec  (  5.5%)
COSX gradient               ....      10.731 sec  ( 74.8%)
XC gradient                 ....       1.806 sec  ( 12.6%)

Maximum memory used throughout the entire SCFGRAD-calculation: 37.7 MB
------------------------------------------------------------------------------
                         ORCA GEOMETRY RELAXATION STEP
------------------------------------------------------------------------------

Reading the OPT-File                    .... done
Getting information on internals        .... done
Copying old internal coords+grads       .... done
Making the new internal coordinates     .... (2022 redundants) done
Validating the new internal coordinates .... (2022 redundants) done
Calculating the B-matrix                .... done
Calculating the G,G- and P matrices     .... done
Transforming gradient to internals      .... done
Projecting the internal gradient        .... done
Number of atoms                         ....  12
Number of internal coordinates          ....  54
Current Energy                          ....  -826.424495719 Eh
Current gradient norm                   ....     0.005500901 Eh/bohr
Maximum allowed component of the step   ....  0.300
Current trust radius                    ....  0.300
Updating the Hessian (BFGS)             .... done
Forming the augmented Hessian           .... done
Diagonalizing the augmented Hessian     .... done
Last element of RFO vector              ....  0.999760671
Lowest eigenvalues of augmented Hessian:
 -0.000078191  0.026033767  0.026035655  0.026036666  0.026038206
Length of the computed step             ....  0.021882190
The final length of the internal step   ....  0.021882190
Converting the step to Cartesian space:
 Initial RMS(Int)=    0.0029777889
Transforming coordinates:
 Iter   0:  RMS(Cart)=    0.0036195120 RMS(Int)=    0.8550323696
done
Storing new coordinates                 .... done
The predicted energy change is          ....    -0.000039114
Previously predicted energy change      ....    -0.002481665
Actually observed energy change         ....    -0.002066547
Ratio of predicted to observed change   ....     0.832726075
New trust radius                        ....     0.450000000

                                .--------------------.
          ----------------------|Geometry convergence|-------------------------
          Item                value                   Tolerance       Converged
          ---------------------------------------------------------------------
          Energy change      -0.0020665472            0.0000050000      NO
[...]
     13      -0.039804   0.053203  -0.343894  -0.027313  -0.097651  -0.125217
     14       0.010458  -0.014169   0.091710   0.007246   0.025800   0.033385
     15       0.018758  -0.051701   0.349299  -0.024664   0.066432  -0.132651
     16       0.085120  -0.019033   0.069859  -0.016581   0.137147  -0.005119
     17      -0.022654   0.005005  -0.018090   0.004368  -0.036415   0.001161
     18      -0.000563  -0.000160   0.000049  -0.000191  -0.000678  -0.000417
     19       0.000415  -0.000203  -0.000044   0.000143   0.000504  -0.000527
     20      -0.000112   0.000054   0.000012  -0.000038  -0.000135   0.000140
     21      -0.000562   0.000160   0.000050   0.000191  -0.000678  -0.000416
     22       0.000416   0.000203  -0.000045  -0.000143   0.000504  -0.000527
     23      -0.000112  -0.000054   0.000012   0.000038  -0.000135   0.000140
     24      -0.145087  -0.064972   0.074551  -0.061021  -0.058904   0.121068
     25      -0.452792  -0.475916  -0.038021  -0.474415   0.446385   0.445475
     26       0.120434   0.126580   0.009901   0.126238  -0.118838  -0.118463
     27       0.414113   0.458971   0.055512  -0.457750  -0.461380   0.413384
     28       0.253244   0.184733  -0.060309  -0.180360  -0.061304   0.228903
     29      -0.066698  -0.048325   0.016375   0.047181   0.015461  -0.060211
     30      -0.145053   0.064982   0.074554   0.061011  -0.058899   0.121066
     31      -0.452799   0.475941  -0.038032   0.474431   0.446289   0.445450
     32       0.120435  -0.126591   0.009904  -0.126243  -0.118814  -0.118457
     33       0.414091  -0.458983   0.055573   0.457723  -0.461431   0.413401
     34       0.253205  -0.184736  -0.060307   0.180361  -0.061335   0.228905
     35      -0.066683   0.048326   0.016364  -0.047179   0.015469  -0.060210
                 30         31         32         33         34         35    
      0      -0.097105   0.288895  -0.001377   0.001374  -0.002385   0.001696
      1      -0.109825  -0.218951  -0.001739  -0.001017   0.001766   0.002140
      2       0.029108   0.058790   0.000461   0.000274  -0.000474  -0.000567
      3       0.120235  -0.112914  -0.042095  -0.042082   0.043992   0.044181
      4       0.260899   0.234949   0.007276   0.006665  -0.004459  -0.005225
      5      -0.069300  -0.062729  -0.002005  -0.001841   0.001260   0.001464
      6      -0.240589   0.251000   0.018214   0.017599   0.015940   0.016748
      7      -0.177998  -0.054122  -0.037331  -0.037483  -0.039928  -0.039890
      8       0.047029   0.014790   0.009971   0.010010   0.010659   0.010651
      9       0.097115  -0.288897  -0.001376  -0.001371  -0.002387  -0.001695
     10       0.109829   0.218958  -0.001737   0.001017   0.001766  -0.002142
     11      -0.029109  -0.058792   0.000460  -0.000274  -0.000474   0.000568
     12      -0.120246   0.112914  -0.042036   0.042084   0.043998  -0.044229
     13      -0.260905  -0.234966   0.007268  -0.006668  -0.004461   0.005232
     14       0.069301   0.062734  -0.002003   0.001842   0.001260  -0.001466
     15       0.240589  -0.251001   0.018209  -0.017625   0.015918  -0.016747
     16       0.178003   0.054127  -0.037323   0.037542  -0.039880   0.039890
     17      -0.047030  -0.014793   0.009969  -0.010025   0.010646  -0.010651
     18       0.000275   0.000470   0.000018  -0.000004   0.000000   0.000021
     19       0.000367  -0.000334   0.000023   0.000003  -0.000000   0.000027
     20      -0.000097   0.000091  -0.000006  -0.000001   0.000000  -0.000007
     21      -0.000275  -0.000470   0.000018   0.000004   0.000000  -0.000021
     22      -0.000367   0.000334   0.000023  -0.000003  -0.000000  -0.000027
     23       0.000097  -0.000091  -0.000006   0.000001   0.000000   0.000007
     24       0.037180  -0.201749   0.493810   0.493439  -0.493458  -0.493208
     25      -0.366232  -0.270389  -0.066843  -0.066459   0.063509   0.063886
     26       0.097571   0.071652   0.018602   0.018494  -0.017712  -0.017813
     27       0.384724  -0.196453  -0.195183  -0.194718  -0.192246  -0.192481
     28       0.071834  -0.254901   0.442729   0.442535   0.444362   0.443850
     29      -0.018506   0.067606  -0.118232  -0.118173  -0.118661  -0.118525
     30      -0.037188   0.201760   0.493131  -0.493487  -0.493542   0.493757
     31       0.366227   0.270417  -0.066754   0.066469   0.063523  -0.063959
     32      -0.097571  -0.071662   0.018578  -0.018498  -0.017717   0.017835
     33      -0.384747   0.196466  -0.195133   0.195012  -0.192002   0.192474
     34      -0.071834   0.254913   0.442621  -0.443211   0.443804  -0.443842
     35       0.018503  -0.067607  -0.118202   0.118352  -0.118511   0.118521


-----------
IR SPECTRUM
-----------

 Mode   freq       eps      Int      T**2         TX        TY        TZ
       cm**-1   L/(mol*cm) km/mol    a.u.
----------------------------------------------------------------------------
  6:     62.64   0.000005    0.03  0.000025  ( 0.000020  0.001310  0.004852)
  7:    133.18   0.000008    0.04  0.000019  (-0.003475  0.002507 -0.000646)
  8:    158.20   0.000000    0.00  0.000000  (-0.000000 -0.000000 -0.000000)
  9:    239.61   0.000000    0.00  0.000000  (-0.000000  0.000001  0.000005)
 10:    282.12   0.000000    0.00  0.000000  (-0.000000  0.000001 -0.000000)
 11:    368.68   0.000658    3.33  0.000557  ( 0.014335  0.018118 -0.004858)
 12:    408.65   0.000000    0.00  0.000000  ( 0.000026  0.000051  0.000132)
 13:    478.74   0.003653   18.46  0.002381  (-0.000085  0.012537  0.047160)
 14:    637.29   0.000000    0.00  0.000000  (-0.000002 -0.000003  0.000001)
 15:    702.12   0.000000    0.00  0.000000  (-0.000001 -0.000001  0.000000)
 16:    707.77   0.000000    0.00  0.000000  ( 0.000000 -0.000002 -0.000008)
 17:    823.90   0.008038   40.62  0.003045  (-0.000094  0.014112  0.053342)
 18:    835.64   0.000000    0.00  0.000000  ( 0.000000 -0.000001 -0.000006)
 19:    960.00   0.000001    0.00  0.000000  ( 0.000344  0.000407 -0.000051)
 20:    962.35   0.000000    0.00  0.000000  ( 0.000000 -0.000002 -0.000005)
 21:   1012.83   0.027732  140.15  0.008544  (-0.056209 -0.070929  0.018816)
 22:   1066.44   0.000000    0.00  0.000000  (-0.000005 -0.000007  0.000002)
 23:   1090.41   0.007270   36.74  0.002081  (-0.027748 -0.034984  0.009316)
 24:   1131.01   0.000766    3.87  0.000211  ( 0.011543 -0.008520  0.002329)
 25:   1214.00   0.000000    0.00  0.000000  (-0.000000  0.000000 -0.000000)
 26:   1299.77   0.000101    0.51  0.000024  (-0.003917  0.002877 -0.000780)
 27:   1330.67   0.000000    0.00  0.000000  (-0.000000  0.000001 -0.000000)
 28:   1410.78   0.003408   17.22  0.000754  (-0.021789  0.016142 -0.004301)
 29:   1504.08   0.011863   59.95  0.002461  ( 0.030131  0.038084 -0.010154)
 30:   1595.39   0.000000    0.00  0.000000  ( 0.000000  0.000001 -0.000000)
 31:   1598.61   0.000000    0.00  0.000000  (-0.000002  0.000002 -0.000001)
 32:   3194.18   0.000005    0.02  0.000000  (-0.000386 -0.000562  0.000092)
 33:   3195.06   0.000000    0.00  0.000000  (-0.000003  0.000003 -0.000001)
 34:   3207.51   0.000355    1.79  0.000035  ( 0.004713 -0.003397  0.000883)
 35:   3209.27   0.000000    0.00  0.000000  (-0.000001  0.000001 -0.000000)

* The epsilon (eps) is given for a Dirac delta lineshape.
** The dipole moment derivative (T) already includes vibrational overlap.

The first frequency considered to be a vibration is 6
The total number of vibrations considered is 30


--------------------------
THERMOCHEMISTRY AT 298.15K
--------------------------

Temperature         ...   298.15 K
Pressure            ...     1.00 atm
Total Mass          ...   329.90 AMU
Quasi RRHO          ...     True
Cut-Off Frequency   ...     1.00 cm^-1

Throughout the following assumptions are being made:
  (1) The electronic state is orbitally nondegenerate
  (2) There are no thermally accessible electronically excited states
  (3) Hindered rotations indicated by low frequency modes are not
      treated as such but are treated as vibrations and this may
      cause some error
  (4) All equations used are the standard statistical mechanics
      equations for an ideal gas
  (5) All vibrations are strictly harmonic

freq.      62.64  E(vib)   ...       0.51 
freq.     133.18  E(vib)   ...       0.42 
freq.     158.20  E(vib)   ...       0.39 
freq.     239.61  E(vib)   ...       0.31 
freq.     282.12  E(vib)   ...       0.28 
freq.     368.68  E(vib)   ...       0.21 
freq.     408.65  E(vib)   ...       0.19 
freq.     478.74  E(vib)   ...       0.15 
freq.     637.29  E(vib)   ...       0.09 
freq.     702.12  E(vib)   ...       0.07 
freq.     707.77  E(vib)   ...       0.07 
freq.     823.90  E(vib)   ...       0.05 
freq.     835.64  E(vib)   ...       0.04 
freq.     960.00  E(vib)   ...       0.03 
freq.     962.35  E(vib)   ...       0.03 
freq.    1012.83  E(vib)   ...       0.02 
freq.    1066.44  E(vib)   ...       0.02 
freq.    1090.41  E(vib)   ...       0.02 
freq.    1131.01  E(vib)   ...       0.01 
freq.    1214.00  E(vib)   ...       0.01 
freq.    1299.77  E(vib)   ...       0.01 
freq.    1330.67  E(vib)   ...       0.01 
freq.    1410.78  E(vib)   ...       0.00 
freq.    1504.08  E(vib)   ...       0.00 
freq.    1595.39  E(vib)   ...       0.00 
freq.    1598.61  E(vib)   ...       0.00 
freq.    3194.18  E(vib)   ...       0.00 
freq.    3195.06  E(vib)   ...       0.00 
freq.    3207.51  E(vib)   ...       0.00 
freq.    3209.27  E(vib)   ...       0.00 

------------
INNER ENERGY
------------

The inner energy is: U= E(el) + E(ZPE) + E(vib) + E(rot) + E(trans)
    E(el)   - is the total energy from the electronic structure calculation
              = E(kin-el) + E(nuc-el) + E(el-el) + E(nuc-nuc)
    E(ZPE)  - the the zero temperature vibrational energy from the frequency calculation
    E(vib)  - the the finite temperature correction to E(ZPE) due to population
              of excited vibrational states
    E(rot)  - is the rotational thermal energy
    E(trans)- is the translational thermal energy

Summary of contributions to the inner energy U:
Electronic energy                ...   -826.42456531 Eh
Zero point energy                ...      0.07932777 Eh      49.78 kcal/mol
Thermal vibrational correction   ...      0.00469273 Eh       2.94 kcal/mol
Thermal rotational correction    ...      0.00141627 Eh       0.89 kcal/mol
Thermal translational correction ...      0.00141627 Eh       0.89 kcal/mol
-----------------------------------------------------------------------
Total thermal energy                   -826.33771227 Eh


Summary of corrections to the electronic energy:
(perhaps to be used in another calculation)
Total thermal correction                  0.00752527 Eh       4.72 kcal/mol
Non-thermal (ZPE) correction              0.07932777 Eh      49.78 kcal/mol
-----------------------------------------------------------------------
Total correction                          0.08685304 Eh      54.50 kcal/mol


--------
ENTHALPY
--------

The enthalpy is H = U + kB*T
                kB is Boltzmann's constant
Total thermal energy              ...   -826.33771227 Eh 
Thermal Enthalpy correction       ...      0.00094421 Eh       0.59 kcal/mol
-----------------------------------------------------------------------
Total Enthalpy                    ...   -826.33676806 Eh


Note: Rotational entropy computed according to Herzberg 
Infrared and Raman Spectra, Chapter V,1, Van Nostrand Reinhold, 1945 
Point Group:  Ci, Symmetry Number:   1  
Rotational constants in cm-1:     0.190470     0.005329     0.005184 

Vibrational entropy computed according to the QRRHO of S. Grimme
Chem.Eur.J. 2012 18 9955 using a reference frequency of 100.0 cm-1


-------
ENTROPY
-------

The entropy contributions are T*S = T*(S(el)+S(vib)+S(rot)+S(trans))
     S(el)   - electronic entropy
     S(vib)  - vibrational entropy
     S(rot)  - rotational entropy
     S(trans)- translational entropy
The entropies will be listed as multiplied by the temperature to get
units of energy

Electronic entropy                ...      0.00000000 Eh      0.00 kcal/mol
Vibrational entropy               ...      0.00802728 Eh      5.04 kcal/mol
Rotational entropy                ...      0.01524903 Eh      9.57 kcal/mol
Translational entropy             ...      0.02056172 Eh     12.90 kcal/mol
-----------------------------------------------------------------------
Final entropy term                ...      0.04383803 Eh     27.51 kcal/mol

In case the symmetry of your molecule has not been determined correctly
or in case you have a reason to use a different symmetry number we print 
out the resulting rotational entropy values for sn=1,12:

 non-linear molecules -----------------------------------
|  sn= 1 | S(rot)=       0.01524903 Eh      9.57 kcal/mol|
|  sn= 2 | S(rot)=       0.01459458 Eh      9.16 kcal/mol|
|  sn= 3 | S(rot)=       0.01421174 Eh      8.92 kcal/mol|
|  sn= 4 | S(rot)=       0.01394012 Eh      8.75 kcal/mol|
|  sn= 5 | S(rot)=       0.01372943 Eh      8.62 kcal/mol|
|  sn= 6 | S(rot)=       0.01355729 Eh      8.51 kcal/mol|
|  sn= 7 | S(rot)=       0.01341174 Eh      8.42 kcal/mol|
|  sn= 8 | S(rot)=       0.01328566 Eh      8.34 kcal/mol|
|  sn= 9 | S(rot)=       0.01317446 Eh      8.27 kcal/mol|
|  sn=10 | S(rot)=       0.01307498 Eh      8.20 kcal/mol|
|  sn=11 | S(rot)=       0.01298499 Eh      8.15 kcal/mol|
|  sn=12 | S(rot)=       0.01290283 Eh      8.10 kcal/mol|
 linear molecules ---------------------------------------
|  Dinfh | S(rot)=       0.01029421 Eh      6.46 kcal/mol|
|  Cinfv | S(rot)=       0.01094867 Eh      6.87 kcal/mol|
 --------------------------------------------------------


-------------------
GIBBS FREE ENERGY
-------------------

The Gibbs free energy is G = H - T*S

Total enthalpy                    ...   -826.33676806 Eh 
Total entropy correction          ...     -0.04383803 Eh    -27.51 kcal/mol
-----------------------------------------------------------------------
Final Gibbs free energy         ...   -826.38060609 Eh

For completeness - the Gibbs free energy minus the electronic energy
G-E(el)                           ...      0.04395921 Eh     27.58 kcal/mol


Maximum memory used throughout the entire PROP-calculation: 89.2 MB

--------------------------------
SUGGESTED CITATIONS FOR THIS RUN
--------------------------------

Below you find a list of papers that are relevant to this ORCA run
We neither can nor want to force you to cite these papers, but we appreciate if you do
You receive ORCA, which is the product of decades of hard work by many enthusiastic individuals, for free
The only thing we kindly ask in return is that you cite our papers,
We deeply appreciate it, if you show your appreciation for ORCA by not just citing the generic ORCA reference.

Please note that relegating all ORCA citations to the supporting information does *not* help us.
SI sections are not indexed - citations you put there will not count into any citation statistics
But we need these citations in order to attract the funding resources that allow us to do what we are doing

Therefore, if you are a happy ORCA user, please consider citing a few of the papers listed below in the main body of your paper

In addition to the list printed below, the program has created the file DIB.bibtex that contains the list in bibtex format
You can import this file easily into all common literature databanks and citation aid programs


List of essential papers. We consider these as the minimum necessary citations

  1. Neese,F.
     Software update: the ORCA program system, version 5.0
     WIRES Comput. Molec. Sci., 2022 12(1)e1606
     doi.org/10.1002/wcms.1606

List of papers to cite with high priority. The work reported in these papers was absolutely
necessary for this run to complete.
Our perspective: the developers of density functionals and basis sets usually get cited in chemistry papers
Good! But without the algorithms to do something with them, the functionals or basis sets would not do anything.
Hence, in our opinion, the algorithm design and method developments papers are equally worthy of getting cited

  1. Neese,F.
     An improvement of the resolution of the identity approximation for the formation of the Coulomb matrix
     J. Comp. Chem., 2003 24(14)1740-1747
     doi.org/10.1002/jcc.10318
  2. Neese,F.; Wennmohs,F.; Hansen,A.; Becker,U.
     Efficient, approximate and parallel Hartree-Fock and hybrid DFT calculations. A 'chain-of-spheres' algorithm for the Hartree-Fock exchange
     Chem. Phys., 2009 356(1-3)98-109
     doi.org/10.1016/j.chemphys.2008.10.036
  3. Bykov,D.; Petrenko,T.; Izsak,R.; Kossmann,S.; Becker,U.; Valeev,E.; Neese,F.
     Efficient implementation of the analytic second derivatives of Hartree-Fock and hybrid DFT energies: a detailed analysis of different approximations
     Molec. Phys., 2015 113 1961-1977
     doi.org/10.1080/00268976.2015.1025114
  4. Helmich-Paris,B.; de Souza,B.; Neese,F.; Izsák,R.
     An improved chain of spheres for exchange algorithm
     J. Chem. Phys., 2021 155 104109
     doi.org/doi: 10.1063/5.0058766.
  5. Neese,F.
     The SHARK Integral Generation and Digestion System
     J. Comp. Chem., 2022  1-16
     doi.org/10.1002/jcc.26942
  6. Grimme,S.; Antony,J.; Ehrlich,S.; Krieg,H.
     A consistent and accurate ab initio parametrization of density functional dispersion correction (DFT-D) for the 94 elements H-Pu
     J. Chem. Phys., 2010 132 154104
     doi.org/10.1063/1.3382344
  7. Grimme,S.; Ehrlich,S.; Goerigk,L.
     Effect of the damping function in dispersion corrected density functional theory
     J. Comput. Chem., 2011 32(7)1456-1465
     doi.org/10.1002/jcc.21759

List of suggested additional citations. These are papers that are important in the 'surrounding' of 
of this run, or papers that preceded the highly important papers. If you like your results we are grateful for a citation.

  1. Izsak,R.; Neese,F.
     An overlap fitted chain of spheres exchange method
     J. Chem. Phys., 2011 135 144105
     doi.org/10.1063/1.3646921
  2. Izsak,R.; Hansen,A.; Neese,F.
     The resolution of identity and chain of spheres approximations for the LPNO-CCSD singles Fock term
     Molec. Phys., 2012 110 2413-2417
     doi.org/10.1080/00268976.2012.687466
  3. Neese,F.
     The ORCA program system
     WIRES Comput. Molec. Sci., 2012 2(1)73-78
     doi.org/10.1002/wcms.81
  4. Izsak,R.; Neese,F.; Klopper,W.
     Robust fitting techniques in the chain of spheres approximation to the Fock exchange: The role of the complementary space
     J. Chem. Phys., 2013 139 
     doi.org/10.1063/1.4819264
  5. Neese,F.
     Software update: the ORCA program system, version 4.0
     WIRES Comput. Molec. Sci., 2018 8(1)1-6
     doi.org/10.1002/wcms.1327
  6. Neese,F.; Wennmohs,F.; Becker,U.; Riplinger,C.
     The ORCA quantum chemistry program package
     J. Chem. Phys., 2020 152 Art. No. L224108
     doi.org/10.1063/5.0004608

List of optional additional citations

  1. Neese,F.
     Approximate second-order SCF convergence for spin unrestricted wavefunctions
     Chem. Phys. Lett., 2000 325(1-3)93-98
     doi.org/10.1016/s0009-2614(00)00662-x

Timings for individual modules:

Sum of individual times          ...      675.428 sec (=  11.257 min)
Startup calculation              ...       31.659 sec (=   0.528 min)   4.7 %
SCF iterations                   ...      202.625 sec (=   3.377 min)  30.0 %
Property integrals               ...       76.709 sec (=   1.278 min)  11.4 %
SCF Response                     ...       87.187 sec (=   1.453 min)  12.9 %
Property calculations            ...      199.704 sec (=   3.328 min)  29.6 %
SCF Gradient evaluation          ...       77.395 sec (=   1.290 min)  11.5 %
Geometry relaxation              ...        0.147 sec (=   0.002 min)   0.0 %
                             ****ORCA TERMINATED NORMALLY****
TOTAL RUN TIME: 0 days 0 hours 11 minutes 23 seconds 576 msec
